 # Li71 S24 N8
  
         103  atoms
           3  atom types
 
      0.000000000000      11.015079520000  xlo xhi
      0.000000000000      11.015079520000  ylo yhi
      0.000000000000      11.015079520000  zlo zhi
 
Masses
 
            1   6.94000000              # Li
            2   32.06000000             # S
            3   14.00700000             # N
 
Atoms # atomic
 
         1    1        4.309154183622       1.198385576378       4.309154183622
         2    1        4.309154183622       1.198385576378       9.816693943622
         3    1        4.309154183622       6.705925336378       4.309154183622
         4    1        4.309154183622       6.705925336378       9.816693943622
         5    1        9.816693943622       1.198385576378       4.309154183622
         6    1        9.816693943622       1.198385576378       9.816693943622
         7    1        9.816693943622       6.705925336378       4.309154183622
         8    1        9.816693943622       6.705925336378       9.816693943622
         9    1        1.198385576378       1.198385576378       1.198385576378
        10    1        1.198385576378       1.198385576378       6.705925336378
        11    1        1.198385576378       6.705925336378       1.198385576378
        12    1        1.198385576378       6.705925336378       6.705925336378
        13    1        6.705925336378       1.198385576378       1.198385576378
        14    1        6.705925336378       1.198385576378       6.705925336378
        15    1        6.705925336378       6.705925336378       1.198385576378
        16    1        6.705925336378       6.705925336378       6.705925336378
        17    1        4.309154183622       4.309154183622       4.309154183622
        18    1        4.309154183622       4.309154183622       9.816693943622
        19    1        4.309154183622       9.816693943622       4.309154183622
        20    1        4.309154183622       9.816693943622       9.816693943622
        21    1        9.816693943622       4.309154183622       4.309154183622
        22    1        9.816693943622       4.309154183622       9.816693943622
        23    1        9.816693943622       9.816693943622       4.309154183622
        24    1        9.816693943622       9.816693943622       9.816693943622
        25    1        1.198385576378       4.309154183622       1.198385576378
        26    1        1.198385576378       4.309154183622       6.705925336378
        27    1        1.198385576378       9.816693943622       1.198385576378
        28    1        1.198385576378       9.816693943622       6.705925336378
        29    1        6.705925336378       4.309154183622       1.198385576378
        30    1        6.705925336378       4.309154183622       6.705925336378
        31    1        6.705925336378       9.816693943622       1.198385576378
        32    1        6.705925336378       9.816693943622       6.705925336378
        33    1        4.309154183622       1.198385576378       1.198385576378
        34    1        4.309154183622       1.198385576378       6.705925336378
        35    1        4.309154183622       6.705925336378       1.198385576378
        36    1        4.309154183622       6.705925336378       6.705925336378
        37    1        9.816693943622       1.198385576378       1.198385576378
        38    1        9.816693943622       1.198385576378       6.705925336378
        39    1        9.816693943622       6.705925336378       1.198385576378
        40    1        9.816693943622       6.705925336378       6.705925336378
        41    1        4.309154183622       4.309154183622       1.198385576378
        42    1        4.309154183622       4.309154183622       6.705925336378
        43    1        4.309154183622       9.816693943622       1.198385576378
        44    1        4.309154183622       9.816693943622       6.705925336378
        45    1        9.816693943622       4.309154183622       1.198385576378
        46    1        9.816693943622       4.309154183622       6.705925336378
        47    1        9.816693943622       9.816693943622       1.198385576378
        48    1        9.816693943622       9.816693943622       6.705925336378
        49    1        2.753769880000       2.753769880000       8.261309640000
        50    1        2.753769880000       8.261309640000       2.753769880000
        51    1        2.753769880000       8.261309640000       8.261309640000
        52    1        8.261309640000       2.753769880000       2.753769880000
        53    1        8.261309640000       2.753769880000       8.261309640000
        54    1        8.261309640000       8.261309640000       2.753769880000
        55    1        8.261309640000       8.261309640000       8.261309640000
        56    1        1.198385576378       4.309154183622       4.309154183622
        57    1        1.198385576378       4.309154183622       9.816693943622
        58    1        1.198385576378       9.816693943622       4.309154183622
        59    1        1.198385576378       9.816693943622       9.816693943622
        60    1        6.705925336378       4.309154183622       4.309154183622
        61    1        6.705925336378       4.309154183622       9.816693943622
        62    1        6.705925336378       9.816693943622       4.309154183622
        63    1        6.705925336378       9.816693943622       9.816693943622
        64    1        1.198385576378       1.198385576378       4.309154183622
        65    1        1.198385576378       1.198385576378       9.816693943622
        66    1        1.198385576378       6.705925336378       4.309154183622
        67    1        1.198385576378       6.705925336378       9.816693943622
        68    1        6.705925336378       1.198385576378       4.309154183622
        69    1        6.705925336378       1.198385576378       9.816693943622
        70    1        6.705925336378       6.705925336378       4.309154183622
        71    1        6.705925336378       6.705925336378       9.816693943622
        72    2        2.753769880000       2.753769880000       0.000000000000
        73    2        2.753769880000       2.753769880000       5.507539760000
        74    2        2.753769880000       8.261309640000       0.000000000000
        75    2        2.753769880000       8.261309640000       5.507539760000
        76    2        8.261309640000       2.753769880000       0.000000000000
        77    2        8.261309640000       2.753769880000       5.507539760000
        78    2        8.261309640000       8.261309640000       0.000000000000
        79    2        8.261309640000       8.261309640000       5.507539760000
        80    2        0.000000000000       2.753769880000       2.753769880000
        81    2        0.000000000000       2.753769880000       8.261309640000
        82    2        0.000000000000       8.261309640000       2.753769880000
        83    2        0.000000000000       8.261309640000       8.261309640000
        84    2        5.507539760000       2.753769880000       2.753769880000
        85    2        5.507539760000       2.753769880000       8.261309640000
        86    2        5.507539760000       8.261309640000       2.753769880000
        87    2        5.507539760000       8.261309640000       8.261309640000
        88    2        2.753769880000       0.000000000000       2.753769880000
        89    2        2.753769880000       0.000000000000       8.261309640000
        90    2        2.753769880000       5.507539760000       2.753769880000
        91    2        2.753769880000       5.507539760000       8.261309640000
        92    2        8.261309640000       0.000000000000       2.753769880000
        93    2        8.261309640000       0.000000000000       8.261309640000
        94    2        8.261309640000       5.507539760000       2.753769880000
        95    2        8.261309640000       5.507539760000       8.261309640000
        96    3        0.000000000000       0.000000000000       0.000000000000
        97    3        0.000000000000       0.000000000000       5.507539760000
        98    3        0.000000000000       5.507539760000       0.000000000000
        99    3        0.000000000000       5.507539760000       5.507539760000
       100    3        5.507539760000       0.000000000000       0.000000000000
       101    3        5.507539760000       0.000000000000       5.507539760000
       102    3        5.507539760000       5.507539760000       0.000000000000
       103    3        5.507539760000       5.507539760000       5.507539760000
