ITEM: TIMESTEP
0
ITEM: NUMBER OF ATOMS
103
ITEM: BOX BOUNDS pp pp pp
0.0000000000000000e+00 1.1015079520000000e+01
0.0000000000000000e+00 1.1015079520000000e+01
0.0000000000000000e+00 1.1015079520000000e+01
ITEM: ATOMS id type xu yu zu
1 1 4.30915 1.19839 4.30915
2 1 4.30915 1.19839 9.81669
3 1 4.30915 6.70593 4.30915
4 1 4.30915 6.70593 9.81669
5 1 9.81669 1.19839 4.30915
6 1 9.81669 1.19839 9.81669
7 1 9.81669 6.70593 4.30915
8 1 9.81669 6.70593 9.81669
9 1 1.19839 1.19839 1.19839
10 1 1.19839 1.19839 6.70593
11 1 1.19839 6.70593 1.19839
12 1 1.19839 6.70593 6.70593
13 1 6.70593 1.19839 1.19839
14 1 6.70593 1.19839 6.70593
15 1 6.70593 6.70593 1.19839
16 1 6.70593 6.70593 6.70593
17 1 4.30915 4.30915 4.30915
18 1 4.30915 4.30915 9.81669
19 1 4.30915 9.81669 4.30915
20 1 4.30915 9.81669 9.81669
21 1 9.81669 4.30915 4.30915
22 1 9.81669 4.30915 9.81669
23 1 9.81669 9.81669 4.30915
24 1 9.81669 9.81669 9.81669
25 1 1.19839 4.30915 1.19839
26 1 1.19839 4.30915 6.70593
27 1 1.19839 9.81669 1.19839
28 1 1.19839 9.81669 6.70593
29 1 6.70593 4.30915 1.19839
30 1 6.70593 4.30915 6.70593
31 1 6.70593 9.81669 1.19839
32 1 6.70593 9.81669 6.70593
33 1 4.30915 1.19839 1.19839
34 1 4.30915 1.19839 6.70593
35 1 4.30915 6.70593 1.19839
36 1 4.30915 6.70593 6.70593
37 1 9.81669 1.19839 1.19839
38 1 9.81669 1.19839 6.70593
39 1 9.81669 6.70593 1.19839
40 1 9.81669 6.70593 6.70593
41 1 4.30915 4.30915 1.19839
42 1 4.30915 4.30915 6.70593
43 1 4.30915 9.81669 1.19839
44 1 4.30915 9.81669 6.70593
45 1 9.81669 4.30915 1.19839
46 1 9.81669 4.30915 6.70593
47 1 9.81669 9.81669 1.19839
48 1 9.81669 9.81669 6.70593
49 1 2.75377 2.75377 8.26131
50 1 2.75377 8.26131 2.75377
51 1 2.75377 8.26131 8.26131
52 1 8.26131 2.75377 2.75377
53 1 8.26131 2.75377 8.26131
54 1 8.26131 8.26131 2.75377
55 1 8.26131 8.26131 8.26131
56 1 1.19839 4.30915 4.30915
57 1 1.19839 4.30915 9.81669
58 1 1.19839 9.81669 4.30915
59 1 1.19839 9.81669 9.81669
60 1 6.70593 4.30915 4.30915
61 1 6.70593 4.30915 9.81669
62 1 6.70593 9.81669 4.30915
63 1 6.70593 9.81669 9.81669
64 1 1.19839 1.19839 4.30915
65 1 1.19839 1.19839 9.81669
66 1 1.19839 6.70593 4.30915
67 1 1.19839 6.70593 9.81669
68 1 6.70593 1.19839 4.30915
69 1 6.70593 1.19839 9.81669
70 1 6.70593 6.70593 4.30915
71 1 6.70593 6.70593 9.81669
72 2 2.75377 2.75377 0
73 2 2.75377 2.75377 5.50754
74 2 2.75377 8.26131 0
75 2 2.75377 8.26131 5.50754
76 2 8.26131 2.75377 0
77 2 8.26131 2.75377 5.50754
78 2 8.26131 8.26131 0
79 2 8.26131 8.26131 5.50754
80 2 0 2.75377 2.75377
81 2 0 2.75377 8.26131
82 2 0 8.26131 2.75377
83 2 0 8.26131 8.26131
84 2 5.50754 2.75377 2.75377
85 2 5.50754 2.75377 8.26131
86 2 5.50754 8.26131 2.75377
87 2 5.50754 8.26131 8.26131
88 2 2.75377 0 2.75377
89 2 2.75377 0 8.26131
90 2 2.75377 5.50754 2.75377
91 2 2.75377 5.50754 8.26131
92 2 8.26131 0 2.75377
93 2 8.26131 0 8.26131
94 2 8.26131 5.50754 2.75377
95 2 8.26131 5.50754 8.26131
96 3 0 0 0
97 3 0 0 5.50754
98 3 0 5.50754 0
99 3 0 5.50754 5.50754
100 3 5.50754 0 0
101 3 5.50754 0 5.50754
102 3 5.50754 5.50754 0
103 3 5.50754 5.50754 5.50754
ITEM: TIMESTEP
500
ITEM: NUMBER OF ATOMS
103
ITEM: BOX BOUNDS pp pp pp
0.0000000000000000e+00 1.1015079520000000e+01
0.0000000000000000e+00 1.1015079520000000e+01
0.0000000000000000e+00 1.1015079520000000e+01
ITEM: ATOMS id type xu yu zu
1 1 4.23994 1.18082 4.18492
2 1 4.35899 1.16098 10.0092
3 1 4.66604 6.83657 4.24524
4 1 4.18971 6.7086 10.0219
5 1 9.9084 1.06075 4.42543
6 1 9.94372 1.03885 9.44371
7 1 9.80327 6.82157 4.34331
8 1 9.38608 6.70135 9.958
9 1 1.57909 1.00981 1.07841
10 1 0.792997 1.30054 6.53674
11 1 1.08557 6.77291 1.25179
12 1 1.02808 7.35056 6.39509
13 1 6.8244 1.5085 1.372
14 1 6.66964 1.11367 6.72998
15 1 7.04058 6.71917 0.918332
16 1 6.54262 6.81224 6.66197
17 1 4.26025 4.26295 4.0495
18 1 4.49468 4.48721 9.50039
19 1 4.56307 9.36499 4.15136
20 1 4.41826 9.86928 9.76176
21 1 10.044 4.46662 4.25053
22 1 9.93722 4.40566 9.69082
23 1 9.5299 9.84411 4.41692
24 1 9.91922 9.46717 10.0808
25 1 1.20222 4.18658 1.21009
26 1 1.33145 4.33089 6.84569
27 1 0.220322 9.99841 1.17723
28 1 1.14718 10.0085 6.63642
29 1 6.56322 4.4162 1.42127
30 1 6.66275 4.48934 6.66137
31 1 6.66184 9.78263 1.20391
32 1 6.7293 9.53815 6.54976
33 1 4.11423 1.18731 1.33819
34 1 4.33612 1.20056 6.552
35 1 4.62067 6.72296 1.4202
36 1 4.36568 6.67715 6.73326
37 1 10.4945 2.20583 0.489044
38 1 9.43841 0.609082 6.79065
39 1 10.0292 6.76288 1.17375
40 1 10.0889 6.49412 6.93271
41 1 3.94494 4.30904 1.00249
42 1 4.36672 4.2434 6.46293
43 1 4.14068 9.58721 1.39475
44 1 4.22291 9.94968 6.80765
45 1 9.67066 4.49936 1.0643
46 1 9.95982 4.26972 6.50381
47 1 8.93639 11.4719 0.671971
48 1 10.0342 9.47895 6.61371
49 1 2.7451 2.67334 8.02906
50 1 2.24431 8.37468 2.39217
51 1 2.63573 8.0828 8.10582
52 1 8.62558 2.65082 2.70778
53 1 8.02973 3.21457 8.05063
54 1 8.15806 8.34656 2.23189
55 1 8.67875 8.18602 8.20881
56 1 1.40188 4.11296 4.25919
57 1 1.3026 4.53569 9.48991
58 1 1.13963 9.76655 4.39474
59 1 1.38668 10.215 10.1118
60 1 6.53017 3.91881 4.28178
61 1 6.73737 4.18626 10.1893
62 1 6.72906 9.778 4.26756
63 1 6.44805 9.95961 9.59379
64 1 1.14987 1.07309 4.31378
65 1 1.35451 1.49515 9.6526
66 1 1.80886 6.45204 4.57739
67 1 1.21096 6.92657 9.63177
68 1 6.76917 1.17736 4.36757
69 1 6.74142 1.33279 10.0248
70 1 7.06246 6.60469 4.34648
71 1 6.40244 6.51132 9.55979
72 2 2.81575 2.64428 -0.101625
73 2 2.89321 2.59732 5.48542
74 2 2.63987 8.41922 0.0842908
75 2 2.87402 8.35249 5.63723
76 2 8.2693 2.83203 0.0679321
77 2 8.03653 2.87574 5.61199
78 2 8.19191 8.36839 -0.0373141
79 2 8.21981 8.02594 5.69278
80 2 -0.10713 2.6141 2.80056
81 2 -0.0909806 2.74257 8.18215
82 2 -0.197316 8.33608 2.77729
83 2 -0.0786291 8.22801 8.17407
84 2 5.59734 2.58422 2.63326
85 2 5.73295 2.70934 8.16762
86 2 5.8384 8.20449 2.8429
87 2 5.57653 8.10423 8.32597
88 2 2.96134 -0.263821 2.96659
89 2 2.70638 0.0500659 8.41554
90 2 2.6707 5.39549 2.81309
91 2 2.76008 5.74491 8.23259
92 2 8.20428 -0.125929 2.79875
93 2 8.20715 -0.126719 8.42177
94 2 8.36893 5.50953 2.70652
95 2 8.13939 5.72943 8.41845
96 3 -0.142841 0.312922 -0.240449
97 3 -0.166621 -0.21062 5.44625
98 3 -0.132052 5.63574 0.0285458
99 3 0.138244 5.63027 5.65563
100 3 5.47804 -0.0462722 -0.0485966
101 3 5.59668 -0.155103 5.62176
102 3 5.54821 5.50774 -0.0726455
103 3 5.52405 5.50339 5.34152
ITEM: TIMESTEP
1000
ITEM: NUMBER OF ATOMS
103
ITEM: BOX BOUNDS pp pp pp
0.0000000000000000e+00 1.1015079520000000e+01
0.0000000000000000e+00 1.1015079520000000e+01
0.0000000000000000e+00 1.1015079520000000e+01
ITEM: ATOMS id type xu yu zu
1 1 4.31021 1.09594 3.96992
2 1 4.26046 1.14299 9.77982
3 1 4.23149 6.44544 4.23583
4 1 4.53277 6.73338 9.84204
5 1 9.91407 1.46068 4.44344
6 1 9.55787 0.903165 9.89565
7 1 9.4346 6.88328 4.44147
8 1 9.75377 6.67033 10.3759
9 1 1.51214 1.25148 1.23959
10 1 1.00358 1.20083 6.36329
11 1 1.32019 6.53147 1.46599
12 1 1.11977 6.74229 6.63935
13 1 6.62423 1.25931 1.08683
14 1 6.28214 1.0405 6.91956
15 1 6.78171 6.88943 1.09006
16 1 6.78928 6.83275 6.78281
17 1 4.33949 4.42298 4.27919
18 1 4.16579 4.22505 9.66859
19 1 4.03259 9.84484 4.44346
20 1 4.19763 9.76713 10.3153
21 1 9.89033 4.47227 4.08404
22 1 9.96629 4.44648 9.61812
23 1 9.78084 10.1463 3.98578
24 1 9.52262 9.82364 9.94032
25 1 1.34026 4.05488 1.49063
26 1 1.25369 4.36224 6.93905
27 1 1.07979 9.73001 1.2277
28 1 1.41289 9.78633 6.71243
29 1 6.95717 4.4069 1.19068
30 1 6.87365 4.24909 6.68589
31 1 7.00171 10.0546 1.15481
32 1 6.84724 9.84823 6.52907
33 1 4.19764 1.07619 1.31402
34 1 3.78949 0.967846 6.5314
35 1 4.18522 6.59027 1.26431
36 1 4.50288 6.6662 6.71979
37 1 10.8534 2.67674 -0.288327
38 1 9.632 0.864675 6.68564
39 1 10.1247 6.72405 1.53017
40 1 9.68482 6.50413 6.73344
41 1 4.03085 3.9338 1.04286
42 1 4.34875 4.42068 6.74292
43 1 4.6401 10.0116 1.51338
44 1 4.30198 9.60622 6.48456
45 1 9.64518 4.40313 1.12462
46 1 9.95071 4.02288 6.49234
47 1 9.95163 11.6729 1.49985
48 1 10.1018 9.58436 6.44858
49 1 2.7899 2.93942 8.19164
50 1 2.59227 8.26292 2.77702
51 1 2.93419 8.3066 8.51898
52 1 8.04339 2.37649 3.00726
53 1 8.39279 2.47255 7.85297
54 1 8.37588 8.20196 2.63581
55 1 8.20309 8.72286 8.0524
56 1 1.29484 4.0355 4.01214
57 1 1.29085 4.94744 9.97229
58 1 1.03405 9.6265 4.43901
59 1 0.866793 9.97943 9.15544
60 1 6.41031 4.56235 4.35012
61 1 6.76902 4.22099 9.65944
62 1 6.62428 9.79848 4.21961
63 1 6.38317 9.55832 10.1103
64 1 1.36176 1.43474 3.75787
65 1 1.37186 0.942286 9.82643
66 1 1.09461 6.35329 4.21093
67 1 0.90364 7.19128 10.0999
68 1 6.44325 1.27575 4.4275
69 1 6.66017 1.14119 9.68366
70 1 6.4392 6.92946 4.43895
71 1 6.79761 6.68634 9.78685
72 2 2.54951 2.87031 -0.191682
73 2 2.83181 2.75074 5.49445
74 2 2.87696 8.27506 0.244245
75 2 2.82844 8.22078 5.46417
76 2 8.27773 2.85556 -0.08495
77 2 8.43268 2.65408 5.55405
78 2 8.23018 8.28707 -0.0817846
79 2 8.24435 8.46716 5.47071
80 2 -0.0954499 2.59821 2.68595
81 2 0.200306 2.50665 8.33401
82 2 0.211057 8.1426 2.97722
83 2 -0.156566 8.17768 8.27789
84 2 5.76359 2.85492 2.66936
85 2 5.37914 2.81474 8.17852
86 2 5.47496 8.15325 2.76603
87 2 5.48115 8.26615 8.09013
88 2 2.58 -0.198142 2.63466
89 2 2.76961 -0.296428 8.60516
90 2 2.75859 5.46973 2.91603
91 2 2.82812 5.58098 8.33056
92 2 8.33833 -0.0536316 2.87519
93 2 8.09063 0.0064013 8.1916
94 2 8.23505 5.71448 2.78383
95 2 8.22645 5.31511 8.17447
96 3 0.0249442 0.125096 -0.0306352
97 3 -0.142975 0.0863446 5.51179
98 3 0.120816 5.58287 0.304482
99 3 -0.0813052 5.41911 5.5306
100 3 5.66486 -0.0957912 0.239851
101 3 5.38969 0.104918 5.51233
102 3 5.52011 5.51793 -0.0115847
103 3 5.40018 5.63002 5.44936
ITEM: TIMESTEP
1500
ITEM: NUMBER OF ATOMS
103
ITEM: BOX BOUNDS pp pp pp
0.0000000000000000e+00 1.1015079520000000e+01
0.0000000000000000e+00 1.1015079520000000e+01
0.0000000000000000e+00 1.1015079520000000e+01
ITEM: ATOMS id type xu yu zu
1 1 4.24017 1.61578 4.62704
2 1 3.60006 0.419184 10.8032
3 1 4.09624 6.91713 4.20723
4 1 4.39798 6.7635 9.6912
5 1 9.89645 1.40549 4.40721
6 1 9.64399 1.08122 9.68496
7 1 10.0955 6.62203 3.89149
8 1 9.7866 6.55451 9.91723
9 1 1.07889 0.962187 1.29004
10 1 1.08067 1.18978 6.78176
11 1 1.22319 6.60236 1.24749
12 1 1.13051 6.7749 6.96405
13 1 6.61075 1.39457 1.01847
14 1 6.84414 1.14065 6.679
15 1 6.38758 6.54397 1.49574
16 1 6.53875 6.64496 6.77374
17 1 4.37318 4.55615 4.23507
18 1 4.45455 4.45306 9.46936
19 1 4.48356 9.89846 4.10602
20 1 4.27295 9.37328 9.54878
21 1 9.84503 4.38098 4.05366
22 1 9.90485 4.31144 9.77155
23 1 9.80649 9.99896 4.24161
24 1 9.7726 9.55831 10.0207
25 1 2.2495 3.71531 1.63567
26 1 1.38673 4.42007 7.1447
27 1 1.15982 9.4031 1.43745
28 1 0.946324 9.72561 6.36713
29 1 7.1653 4.46151 1.05315
30 1 6.66944 4.3154 6.61067
31 1 6.84857 9.84347 1.23243
32 1 6.51239 9.4707 6.51064
33 1 4.41869 1.27658 1.61805
34 1 4.48114 1.03196 7.12281
35 1 3.88501 6.16192 0.839229
36 1 4.09558 6.46635 6.52252
37 1 9.89581 1.47867 1.14124
38 1 9.89053 1.58105 6.61587
39 1 9.71487 6.88432 1.01032
40 1 9.78586 6.77306 6.54376
41 1 4.9015 3.91198 1.21774
42 1 4.3633 4.14612 6.71179
43 1 4.44044 9.65347 1.20661
44 1 4.13099 9.68769 6.52897
45 1 9.92707 4.28617 1.11133
46 1 10.2009 4.16322 6.53429
47 1 9.91593 10.1446 0.989566
48 1 9.76003 9.8498 6.88433
49 1 3.05314 2.46269 8.31361
50 1 2.68579 8.17527 2.61753
51 1 2.57372 8.05431 8.00617
52 1 8.25504 2.44983 2.69574
53 1 8.11024 2.90075 8.24261
54 1 8.22353 8.21927 2.73558
55 1 8.10717 8.27389 8.39065
56 1 1.02595 4.07462 4.61401
57 1 1.28693 4.2082 10.0423
58 1 1.25777 9.57269 4.30141
59 1 1.22713 9.88631 9.57752
60 1 7.02066 4.24102 4.26824
61 1 6.88502 4.53035 9.73121
62 1 6.64789 10.1891 3.95191
63 1 6.84202 10.6157 9.6171
64 1 1.26833 1.44713 3.96268
65 1 1.1237 1.41009 10.1036
66 1 1.23421 6.25468 4.6934
67 1 1.2192 6.5479 9.72966
68 1 6.73135 1.5973 4.47623
69 1 5.14057 1.49269 9.9298
70 1 6.64081 6.76414 4.37533
71 1 6.85375 6.85262 9.87004
72 2 3.05964 2.83909 -0.0358163
73 2 2.65534 2.6344 5.82591
74 2 2.71243 8.01423 -0.149582
75 2 2.56337 8.16135 5.58876
76 2 8.11204 2.8072 -0.0585395
77 2 8.34711 2.88387 5.59522
78 2 8.23665 8.37604 0.0869066
79 2 8.21434 8.43323 5.31978
80 2 0.0482663 2.85579 2.75031
81 2 -0.153239 2.60567 8.31383
82 2 -0.0496464 8.42843 2.87023
83 2 0.0545181 8.19874 8.395
84 2 5.83356 2.9065 2.81865
85 2 5.70177 2.88689 8.00619
86 2 5.58368 8.44139 2.74886
87 2 5.45385 8.14863 8.04617
88 2 2.80378 -0.174387 2.80403
89 2 2.79838 -0.154912 8.16099
90 2 2.77098 5.6143 2.97236
91 2 2.67794 5.41731 8.36922
92 2 8.30003 0.191742 2.59331
93 2 8.22827 -0.0397276 8.14238
94 2 8.21679 5.51026 2.76485
95 2 8.25266 5.49893 8.22304
96 3 0.115947 -0.0403373 -0.0690243
97 3 -0.196599 0.00425859 5.34334
98 3 -0.185599 5.59606 -0.0944322
99 3 0.0115198 5.45688 5.46484
100 3 5.31085 0.0749711 0.195571
101 3 5.43865 0.106949 5.56034
102 3 5.55801 5.46859 0.00679241
103 3 5.38753 5.36772 5.63273
ITEM: TIMESTEP
2000
ITEM: NUMBER OF ATOMS
103
ITEM: BOX BOUNDS pp pp pp
0.0000000000000000e+00 1.1015079520000000e+01
0.0000000000000000e+00 1.1015079520000000e+01
0.0000000000000000e+00 1.1015079520000000e+01
ITEM: ATOMS id type xu yu zu
1 1 4.36198 1.2449 4.24212
2 1 2.18339 0.393325 10.4687
3 1 4.17147 6.60018 4.63866
4 1 4.39563 6.28862 9.85189
5 1 10.2026 1.90086 4.5192
6 1 8.44638 3.19105 8.15881
7 1 9.83093 6.54992 4.0492
8 1 9.64521 6.52771 9.74961
9 1 0.878969 0.998535 1.61219
10 1 1.05543 1.15081 6.57134
11 1 1.33511 6.73079 1.32407
12 1 1.37721 6.60174 6.89241
13 1 6.79312 1.34269 1.15925
14 1 6.74427 1.14776 6.64723
15 1 6.36779 6.31221 1.65641
16 1 6.65733 6.2296 6.86703
17 1 4.28732 3.97947 3.94901
18 1 4.40794 4.0146 9.74085
19 1 4.22335 9.66472 4.52701
20 1 4.53026 9.64467 10.0443
21 1 9.9372 4.45531 4.21141
22 1 9.90382 4.29391 10.0553
23 1 9.79262 10.0245 4.27747
24 1 9.6432 10.4323 10.016
25 1 1.24856 4.14205 1.24894
26 1 1.41511 4.2327 6.65183
27 1 1.31141 9.69375 1.21145
28 1 1.33071 9.64701 6.94611
29 1 6.86843 4.08952 1.13819
30 1 6.95694 4.36996 6.48767
31 1 6.78733 9.71157 1.21258
32 1 6.97547 9.86 6.76402
33 1 4.35312 1.56918 0.932168
34 1 4.25992 1.08903 6.6947
35 1 4.15811 6.80136 1.31177
36 1 4.46639 6.77892 6.91394
37 1 9.69603 1.46709 1.18273
38 1 9.89561 1.28 6.58009
39 1 9.82581 6.79922 1.02966
40 1 9.90556 6.85667 6.3697
41 1 4.16922 4.22474 0.839679
42 1 4.6525 4.28733 6.40062
43 1 4.48687 10.2053 1.42377
44 1 4.49181 9.54743 7.18687
45 1 9.94363 4.30569 1.63184
46 1 9.95016 4.46983 6.61767
47 1 9.74727 10.0802 1.11121
48 1 9.71158 10.2745 6.47113
49 1 2.90512 2.11195 8.06935
50 1 3.15218 8.22309 2.96514
51 1 2.52009 7.95686 8.60146
52 1 8.21436 2.97647 2.97512
53 1 7.39828 0.978121 9.89804
54 1 8.20494 8.09115 2.55496
55 1 8.74151 8.46708 8.55453
56 1 1.24842 4.64653 4.27957
57 1 1.19906 4.4369 9.78706
58 1 1.18835 9.94829 4.32049
59 1 0.828205 9.59671 9.7061
60 1 6.77455 4.65985 4.17696
61 1 6.89198 4.12926 9.77735
62 1 6.9941 9.86866 3.97882
63 1 6.81506 9.51943 9.79982
64 1 1.41515 1.34439 4.09685
65 1 -0.0844389 1.41455 9.87678
66 1 1.32114 7.01688 4.24649
67 1 1.0767 6.62147 9.69422
68 1 6.62207 1.57819 4.36781
69 1 5.03138 0.827012 9.60409
70 1 6.40962 7.02844 4.58787
71 1 6.87015 6.55946 10.0732
72 2 2.73165 2.69963 -0.211098
73 2 2.75212 2.60155 5.6943
74 2 2.79693 8.11298 0.002289
75 2 2.65888 8.13559 5.61213
76 2 8.26872 2.63971 -0.0737264
77 2 8.29041 2.91865 5.67318
78 2 8.28788 8.2108 0.135415
79 2 8.09397 8.48567 5.4016
80 2 0.21234 2.82917 2.82316
81 2 -0.114487 2.98753 8.0832
82 2 -0.0901398 8.47289 2.86741
83 2 0.0351043 8.01775 8.3121
84 2 5.54689 2.89253 2.61335
85 2 5.65214 2.4842 8.12313
86 2 5.40469 8.50579 2.79636
87 2 5.64307 8.10365 8.38062
88 2 2.73714 -0.0100527 2.67065
89 2 2.87353 -0.156419 8.15922
90 2 2.60781 5.68516 2.80611
91 2 3.03783 5.42032 8.32688
92 2 8.22809 0.149632 2.58331
93 2 8.39892 -0.0324783 8.25595
94 2 8.30022 5.63479 2.73902
95 2 8.35044 5.57309 8.19586
96 3 0.223511 -0.0389696 0.0543518
97 3 0.18188 0.124825 5.45863
98 3 -0.0664423 5.44242 0.0482533
99 3 0.0417064 5.60045 5.32329
100 3 5.79428 -0.0635423 -0.138116
101 3 5.54483 0.0239914 5.33462
102 3 5.62386 5.09445 -0.00361671
103 3 5.53619 5.50409 5.47834
ITEM: TIMESTEP
2500
ITEM: NUMBER OF ATOMS
103
ITEM: BOX BOUNDS pp pp pp
0.0000000000000000e+00 1.1015079520000000e+01
0.0000000000000000e+00 1.1015079520000000e+01
0.0000000000000000e+00 1.1015079520000000e+01
ITEM: ATOMS id type xu yu zu
1 1 4.25123 1.27355 4.21895
2 1 1.07215 1.29908 9.6449
3 1 4.37707 6.77379 4.23879
4 1 4.4483 6.56122 9.71649
5 1 9.76643 1.25928 4.41329
6 1 8.43269 2.72515 8.21314
7 1 9.76032 6.90928 4.48883
8 1 9.80744 6.65657 10.0449
9 1 1.54193 0.989722 0.899931
10 1 1.51592 0.879481 6.57811
11 1 1.46478 4.60894 1.18838
12 1 0.973968 7.14534 6.49805
13 1 6.77258 1.20027 1.27172
14 1 6.77699 1.36409 6.41128
15 1 6.67903 6.92875 0.905064
16 1 6.49219 7.08048 6.89854
17 1 4.39578 4.37295 4.1043
18 1 4.42588 4.28613 9.80962
19 1 4.81777 10.1978 3.72582
20 1 4.22038 10.0382 9.89364
21 1 9.89036 4.39608 4.29668
22 1 9.87734 4.25182 9.56126
23 1 9.6083 10.2935 4.39374
24 1 9.71453 9.82461 9.66796
25 1 2.82294 2.41583 2.69621
26 1 1.44076 4.63683 6.66182
27 1 1.22995 9.4771 1.07858
28 1 1.35691 9.6801 6.60957
29 1 6.4927 4.48631 1.35658
30 1 6.98319 4.41622 6.68342
31 1 6.81109 10.0101 1.24306
32 1 6.22926 10.1554 6.84014
33 1 4.49776 1.37268 1.05852
34 1 4.27669 1.32161 6.3854
35 1 4.24197 6.45705 1.05228
36 1 4.17024 6.57849 6.78534
37 1 10.3596 1.27686 1.47723
38 1 10.0819 1.41384 6.59016
39 1 10.316 6.74273 1.21496
40 1 9.80333 6.56209 7.02494
41 1 4.36254 4.23474 1.374
42 1 4.43165 4.32921 6.65223
43 1 4.27504 9.48568 1.12906
44 1 4.11178 9.92037 6.39847
45 1 9.98375 4.30005 1.4952
46 1 9.96981 4.17087 6.92057
47 1 9.63177 9.82397 1.12449
48 1 9.6518 10.0085 6.84658
49 1 2.52214 2.75861 7.97208
50 1 2.46696 8.00696 2.4918
51 1 2.36712 8.05757 8.70797
52 1 8.3277 3.151 2.78651
53 1 7.14757 1.23825 9.9637
54 1 8.36665 8.13989 2.64203
55 1 8.17812 8.10444 8.11921
56 1 1.26079 4.39228 4.45853
57 1 1.31452 4.1935 9.68288
58 1 0.999788 9.6174 4.19246
59 1 1.07627 9.92551 10.0526
60 1 6.65008 4.41036 4.31856
61 1 6.79644 4.0837 10.0816
62 1 7.13487 10.1021 4.51635
63 1 6.59185 9.6947 9.67093
64 1 0.984019 1.08815 3.94657
65 1 -1.0505 1.3813 10.3163
66 1 1.48393 6.38194 4.27406
67 1 1.56621 6.32487 10.3856
68 1 6.78681 1.26009 4.20544
69 1 4.68907 1.18846 9.72022
70 1 6.74148 6.85637 4.12243
71 1 6.42557 6.18238 9.3464
72 2 2.80789 2.56112 -0.276883
73 2 2.78471 2.86481 5.43301
74 2 3.0131 8.07896 0.0373282
75 2 2.67775 8.45477 5.28628
76 2 8.32946 2.73284 0.125489
77 2 8.36642 3.00448 5.43939
78 2 8.57508 8.28184 0.0994793
79 2 8.04207 8.35851 5.92896
80 2 0.0548151 2.80121 2.97208
81 2 0.241969 2.70448 8.17169
82 2 -0.13157 8.24328 2.7348
83 2 -0.152242 8.4392 8.2872
84 2 5.39339 2.75056 2.86906
85 2 5.9501 2.55021 8.09304
86 2 5.72176 8.38783 2.68068
87 2 5.17399 8.28252 8.28234
88 2 2.71925 0.156538 2.70471
89 2 2.88008 0.104536 8.19687
90 2 2.94745 5.46788 2.94808
91 2 2.82156 5.45488 8.19879
92 2 8.19817 0.104746 2.76582
93 2 8.1464 -0.0486633 8.16858
94 2 8.36162 5.56693 2.70364
95 2 8.38643 5.40628 8.33174
96 3 -0.00831048 -0.10228 -0.0290043
97 3 0.0715718 0.0388867 5.32953
98 3 -0.0391371 5.42795 -0.00522837
99 3 0.0873397 5.55829 5.76513
100 3 5.73957 -0.0347787 -0.0235346
101 3 5.44106 0.196292 5.36945
102 3 5.5686 5.46667 0.0323213
103 3 5.66109 5.51601 5.53586
ITEM: TIMESTEP
3000
ITEM: NUMBER OF ATOMS
103
ITEM: BOX BOUNDS pp pp pp
0.0000000000000000e+00 1.1015079520000000e+01
0.0000000000000000e+00 1.1015079520000000e+01
0.0000000000000000e+00 1.1015079520000000e+01
ITEM: ATOMS id type xu yu zu
1 1 4.49203 1.26956 4.30931
2 1 1.0875 0.829104 9.76796
3 1 4.24305 7.14893 4.08558
4 1 4.12981 6.84769 9.65773
5 1 9.86707 1.63452 4.7319
6 1 8.05041 3.06564 8.27012
7 1 9.92921 6.75726 4.1774
8 1 9.85858 6.97951 9.88145
9 1 1.43655 1.39292 1.09345
10 1 1.19943 1.28689 6.85559
11 1 0.927089 4.84667 1.33371
12 1 0.65984 6.3497 7.23923
13 1 6.71213 1.29121 1.28805
14 1 6.79279 0.994587 6.39868
15 1 6.8813 7.08321 1.30665
16 1 6.73582 6.98226 6.64303
17 1 4.36732 4.74704 4.11529
18 1 4.37218 4.32202 9.55543
19 1 4.37389 9.79665 4.07912
20 1 4.38261 9.77933 9.79897
21 1 9.92133 4.58055 4.37611
22 1 10.0229 4.36119 9.82281
23 1 10.1943 9.96968 4.34777
24 1 9.6391 9.85306 9.90528
25 1 2.5809 3.07751 2.84453
26 1 1.48072 4.19238 6.54657
27 1 1.73268 10.0376 1.13522
28 1 1.2361 9.74521 6.56508
29 1 6.37934 3.98172 1.27995
30 1 6.81421 4.19686 6.89675
31 1 6.74514 9.8678 1.12067
32 1 6.6362 9.8686 6.67915
33 1 4.21105 1.00486 1.14702
34 1 4.18518 1.237 6.47858
35 1 4.2642 6.59946 1.17152
36 1 4.32319 6.52549 6.66904
37 1 10.1017 1.22529 1.62719
38 1 9.91694 1.34951 6.77454
39 1 9.71302 6.49851 1.39839
40 1 9.57654 6.86083 6.65834
41 1 4.19599 4.44679 0.861174
42 1 4.5329 3.89131 6.37616
43 1 4.6023 9.53033 1.40088
44 1 4.3034 10.0126 6.25661
45 1 9.78626 4.12452 1.23752
46 1 10.0823 4.31627 6.86296
47 1 10.1198 9.60637 1.37157
48 1 9.83871 9.82896 6.85694
49 1 3.20176 2.43085 8.49563
50 1 1.80976 7.25756 1.40883
51 1 2.83455 8.56455 8.20235
52 1 8.15396 2.82399 2.67107
53 1 6.62077 1.29353 9.7258
54 1 8.62321 8.40109 3.03407
55 1 8.28599 8.52876 7.79696
56 1 0.921706 4.38972 4.401
57 1 1.87607 4.50857 9.93314
58 1 1.69133 9.68394 4.28469
59 1 0.844475 9.42458 10.1367
60 1 6.58745 4.1012 4.7
61 1 6.83259 4.23729 9.828
62 1 6.76103 9.80615 4.42326
63 1 6.95591 9.46244 9.69951
64 1 0.895227 1.20085 4.30479
65 1 -1.18086 1.56793 9.91931
66 1 1.28444 7.00923 4.73569
67 1 1.0892 6.66364 9.67044
68 1 6.83933 1.09365 4.2829
69 1 4.43529 0.930535 10.1085
70 1 7.05427 6.73493 4.02081
71 1 6.56609 6.48841 9.18453
72 2 3.02956 2.74199 -0.0613918
73 2 2.68588 2.66117 5.3102
74 2 2.80001 8.10358 -0.314189
75 2 2.834 8.18044 5.57962
76 2 8.21932 2.71811 0.212984
77 2 8.33335 2.85555 5.79764
78 2 8.37661 8.23483 0.0396702
79 2 8.31606 8.47858 5.36773
80 2 -0.0955909 2.93776 2.98045
81 2 0.169799 2.83574 8.38078
82 2 -0.0645665 8.14583 2.87902
83 2 -0.0675661 8.34075 8.05128
84 2 5.66667 2.67033 2.76918
85 2 5.64698 2.71562 8.23499
86 2 5.60619 8.22903 2.73891
87 2 5.4649 8.42746 7.93967
88 2 2.95562 -0.0333641 2.79151
89 2 2.92481 0.145538 8.22847
90 2 2.81847 5.65983 2.5438
91 2 2.86183 5.71741 8.37368
92 2 8.37426 0.00266447 2.92053
93 2 8.06628 -0.0692955 8.23666
94 2 8.30445 5.49883 2.81722
95 2 8.26815 5.64412 8.21364
96 3 0.100303 -0.177557 -0.012187
97 3 0.00771364 0.195302 5.63863
98 3 0.0297045 5.58029 -0.0933507
99 3 0.101285 5.53502 5.66051
100 3 5.55852 0.0627718 0.140495
101 3 5.65151 -0.0381159 5.26957
102 3 5.58121 5.31959 -0.00859683
103 3 5.47488 5.45145 5.49092
ITEM: TIMESTEP
3500
ITEM: NUMBER OF ATOMS
103
ITEM: BOX BOUNDS pp pp pp
0.0000000000000000e+00 1.1015079520000000e+01
0.0000000000000000e+00 1.1015079520000000e+01
0.0000000000000000e+00 1.1015079520000000e+01
ITEM: ATOMS id type xu yu zu
1 1 4.5977 0.991682 4.13329
2 1 1.37652 1.17146 9.81789
3 1 4.26907 6.87121 4.2588
4 1 3.83701 6.73515 10.3171
5 1 9.91762 1.25975 4.51064
6 1 7.97803 3.06971 7.86127
7 1 10.1048 6.65179 4.0624
8 1 9.71235 6.92595 9.71533
9 1 1.10272 1.14287 1.25376
10 1 1.12376 1.02914 7.03069
11 1 1.22046 4.34297 0.957086
12 1 1.41449 6.40589 6.59871
13 1 6.75318 1.28672 1.28451
14 1 6.8612 0.94799 7.16237
15 1 6.80687 6.33474 1.13166
16 1 6.8494 6.5511 6.40936
17 1 4.34566 4.2302 4.19585
18 1 4.45884 4.47962 9.63843
19 1 4.39445 9.67632 4.12688
20 1 4.56262 9.70103 9.90808
21 1 9.9328 4.32116 4.61584
22 1 9.83524 4.22047 10.2313
23 1 9.66442 9.9627 4.59928
24 1 9.92321 10.0402 9.76523
25 1 2.67593 2.37596 2.82498
26 1 1.31995 4.09877 6.62917
27 1 1.71304 9.28885 1.73788
28 1 1.3605 9.70615 6.54003
29 1 6.54452 4.1733 1.3737
30 1 6.74716 4.51265 6.43146
31 1 6.71459 9.8014 0.668426
32 1 6.56873 9.40861 6.38993
33 1 4.24197 1.29999 1.09419
34 1 4.49148 1.23548 6.39977
35 1 4.50907 6.83345 1.41539
36 1 4.3342 6.94467 6.30986
37 1 9.62715 1.16518 1.33442
38 1 9.77466 1.35062 6.78127
39 1 9.65682 6.55832 1.18448
40 1 10.317 7.03552 6.47457
41 1 4.16617 4.47487 1.19516
42 1 4.36955 4.58797 6.69159
43 1 4.3054 10.0301 1.17285
44 1 4.33737 9.81849 6.60779
45 1 9.93623 4.23926 1.53518
46 1 9.95073 4.56787 6.857
47 1 10.1776 9.693 1.13169
48 1 10.1166 9.94374 6.93016
49 1 3.03651 2.91529 8.08251
50 1 1.41494 6.72129 1.096
51 1 2.77362 8.1763 8.40339
52 1 8.30831 2.80946 2.77071
53 1 6.74824 1.61586 9.77217
54 1 8.57054 8.66295 3.18065
55 1 8.09724 8.64164 8.05648
56 1 1.4111 4.60485 4.30639
57 1 1.20381 4.05628 9.42905
58 1 1.12125 10.236 4.16159
59 1 1.5566 10.0107 9.71509
60 1 6.79877 4.2569 4.40169
61 1 6.71256 4.30159 9.73343
62 1 6.73496 9.89589 4.10117
63 1 6.83322 10.1805 9.73411
64 1 1.08515 1.77376 4.63763
65 1 -1.50323 1.70041 10.069
66 1 1.50715 7.1908 3.83549
67 1 1.0072 6.80599 9.71768
68 1 6.9462 1.20861 4.3293
69 1 4.36042 1.18223 10.0553
70 1 6.86273 6.57697 4.21722
71 1 6.82387 6.9813 9.69448
72 2 2.80488 2.55029 -0.0992372
73 2 2.81941 2.81467 5.53043
74 2 2.93175 8.34766 0.0372895
75 2 2.79636 8.33298 5.44115
76 2 8.14027 2.95759 0.0215161
77 2 8.22897 2.70453 5.5526
78 2 8.31501 8.25566 -0.375582
79 2 8.33443 8.27626 5.58407
80 2 0.158843 2.69573 2.88687
81 2 -0.213791 2.63512 8.33171
82 2 0.0534667 8.4831 2.77398
83 2 0.283464 8.49069 8.12842
84 2 5.53294 2.75383 2.969
85 2 5.49625 2.92764 8.11857
86 2 5.93524 8.00153 2.72145
87 2 5.60601 8.29618 8.17388
88 2 2.76714 0.0462138 2.72617
89 2 2.88262 0.144229 8.42269
90 2 2.85204 5.52236 2.62677
91 2 2.67651 5.436 8.2449
92 2 8.22917 -0.0325088 2.77429
93 2 8.45415 0.0665792 8.49532
94 2 8.28702 5.23044 2.90041
95 2 8.26008 5.43753 8.2083
96 3 -0.144095 0.157395 -0.0253207
97 3 -0.0106951 0.0854879 5.63531
98 3 -0.106237 5.55785 0.140417
99 3 0.0263897 5.56418 5.53543
100 3 5.51698 0.131117 0.122551
101 3 5.5757 -0.157742 5.48247
102 3 5.36136 5.35309 0.115098
103 3 5.58067 5.71383 5.41457
ITEM: TIMESTEP
4000
ITEM: NUMBER OF ATOMS
103
ITEM: BOX BOUNDS pp pp pp
0.0000000000000000e+00 1.1015079520000000e+01
0.0000000000000000e+00 1.1015079520000000e+01
0.0000000000000000e+00 1.1015079520000000e+01
ITEM: ATOMS id type xu yu zu
1 1 4.24284 1.14169 4.43423
2 1 1.4329 1.56056 9.89376
3 1 4.15798 6.73999 4.57503
4 1 4.37554 6.65873 9.64834
5 1 9.92801 0.923388 4.35821
6 1 8.73307 2.64027 8.34459
7 1 9.87432 6.52094 3.94764
8 1 9.98585 6.93804 10.1355
9 1 1.0715 1.64038 1.33112
10 1 1.27608 1.22587 6.79757
11 1 1.48119 4.57502 1.27629
12 1 0.943216 6.80969 6.73953
13 1 6.80967 1.46028 0.841962
14 1 6.72476 1.13972 7.26417
15 1 6.47502 6.90779 0.78997
16 1 6.5245 6.63694 6.58274
17 1 4.39032 4.15822 4.26886
18 1 4.50532 4.32077 9.52184
19 1 4.06867 9.9282 4.06576
20 1 4.30788 10.0742 9.85959
21 1 10.1767 4.30949 4.32765
22 1 9.95163 4.74065 9.80761
23 1 9.85453 9.39807 4.09846
24 1 10.2364 9.85005 9.96376
25 1 3.24697 2.91917 2.23199
26 1 1.2875 4.1121 6.38116
27 1 1.05314 10.1251 1.32909
28 1 1.44448 9.90263 6.91904
29 1 6.62092 4.13138 1.12763
30 1 6.99025 4.10943 7.05865
31 1 6.73633 9.83414 1.06607
32 1 6.56655 9.49196 6.38958
33 1 4.56196 0.76627 1.1603
34 1 4.62477 1.06983 6.757
35 1 4.02253 7.03332 1.66466
36 1 4.31147 6.35499 6.84577
37 1 9.82899 1.34375 1.62615
38 1 9.91098 0.98877 6.85796
39 1 9.65682 6.88972 1.38343
40 1 9.76154 6.96856 6.4257
41 1 4.18107 4.51328 1.00538
42 1 4.58711 4.16958 6.59389
43 1 4.45666 9.60558 1.28607
44 1 4.34707 9.89632 6.4761
45 1 10.0559 4.34285 1.26395
46 1 9.81621 4.54221 6.60728
47 1 9.97853 10.0518 1.32095
48 1 9.42721 9.93718 6.28911
49 1 2.54426 2.86337 8.12549
50 1 0.941945 6.91418 1.24753
51 1 3.23049 8.22008 8.17549
52 1 8.6135 2.82511 3.19143
53 1 6.62319 1.11833 9.36982
54 1 8.09781 8.25487 2.99666
55 1 8.51381 8.38379 8.1923
56 1 1.32498 4.27329 4.20694
57 1 1.32556 4.50421 9.83212
58 1 1.47018 9.73519 4.5519
59 1 1.50372 10.1115 10.0869
60 1 6.61625 4.17689 4.53036
61 1 6.95056 4.55049 9.8314
62 1 6.53232 10.021 4.20768
63 1 6.60087 9.61832 9.43476
64 1 1.21021 1.32473 4.45355
65 1 -0.864703 1.55695 10.1969
66 1 1.48005 6.86635 4.28579
67 1 1.32941 6.79855 9.6142
68 1 6.69044 1.6031 4.65369
69 1 4.01178 1.26178 9.84516
70 1 6.68253 6.22125 4.00393
71 1 6.78299 6.71101 9.62497
72 2 2.74693 2.92907 -0.0800851
73 2 2.82084 2.71462 5.51693
74 2 3.07184 8.276 -0.0625847
75 2 2.80729 8.24962 5.62087
76 2 8.39021 2.88886 -0.0420498
77 2 8.33151 2.82034 5.84869
78 2 8.46591 8.47552 -0.180863
79 2 8.17063 8.07906 5.40552
80 2 -0.0622987 2.81998 2.96896
81 2 0.206278 2.84783 8.33985
82 2 -0.0540749 8.34926 2.61808
83 2 0.0900058 8.382 8.14151
84 2 5.5636 2.78632 2.64234
85 2 5.45894 2.7601 8.28682
86 2 5.55163 8.03842 2.96163
87 2 5.59986 8.19347 7.92024
88 2 2.70315 0.18523 2.91881
89 2 2.79983 0.369472 8.26249
90 2 2.91701 5.42308 2.9744
91 2 2.61411 5.68874 8.16717
92 2 8.20525 -0.226875 2.79786
93 2 8.3314 -0.309912 8.1829
94 2 8.34233 5.31588 2.68556
95 2 8.29988 5.66243 8.31186
96 3 0.18942 0.231063 0.0827218
97 3 -0.0563008 -0.201005 5.60683
98 3 0.100148 5.60575 0.162348
99 3 0.0998619 5.50982 5.30211
100 3 5.46743 -0.204941 0.0291872
101 3 5.5414 -0.0774332 5.47707
102 3 5.5531 5.58892 -0.234328
103 3 5.59696 5.50526 5.56949
ITEM: TIMESTEP
4500
ITEM: NUMBER OF ATOMS
103
ITEM: BOX BOUNDS pp pp pp
0.0000000000000000e+00 1.1015079520000000e+01
0.0000000000000000e+00 1.1015079520000000e+01
0.0000000000000000e+00 1.1015079520000000e+01
ITEM: ATOMS id type xu yu zu
1 1 4.29273 0.769303 4.06076
2 1 1.66245 1.31449 9.78622
3 1 4.07918 7.04914 3.9641
4 1 4.23754 6.6821 9.93042
5 1 9.84377 1.3589 3.87854
6 1 8.41492 3.07714 8.05474
7 1 9.51207 6.55197 4.20672
8 1 9.98814 7.40375 9.78972
9 1 1.39 1.14223 1.1976
10 1 1.3241 1.01068 6.88644
11 1 1.23325 4.52736 1.49979
12 1 0.618015 6.63994 6.79619
13 1 6.59238 1.42052 1.07757
14 1 6.76751 0.789833 6.83236
15 1 6.73812 6.54952 1.05717
16 1 6.74496 6.2467 6.81082
17 1 4.35476 4.47429 4.4242
18 1 4.66803 4.61576 9.5155
19 1 4.55163 9.33107 4.97087
20 1 4.54908 9.99772 9.81581
21 1 9.9577 4.28901 4.01005
22 1 9.99378 4.53589 9.75639
23 1 9.95864 10.0845 4.27598
24 1 10.0482 9.80392 10.0095
25 1 2.88836 2.78994 2.78349